# Wall shear stress
# Time            	patch             	min               	max               
0.0012            	airfoil	(-1.4782329620e-01 1.1551021729e-01 -2.3197988611e-16)	(1.2334271939e-01 4.3862615059e-01 1.7366500317e-16)
