# Moment          
# CofR            : (0.0000000000e+00 0.0000000000e+00 0.0000000000e+00)
#
# Time            	(total_x total_y total_z)	(pressure_x pressure_y pressure_z)	(viscous_x viscous_y viscous_z)
0.0001            	(0.0000000000e+00 0.0000000000e+00 0.0000000000e+00)	(0.0000000000e+00 0.0000000000e+00 0.0000000000e+00)	(0.0000000000e+00 0.0000000000e+00 0.0000000000e+00)
0.0002            	(0.0000000000e+00 0.0000000000e+00 0.0000000000e+00)	(0.0000000000e+00 0.0000000000e+00 0.0000000000e+00)	(0.0000000000e+00 0.0000000000e+00 0.0000000000e+00)
0.0003            	(0.0000000000e+00 0.0000000000e+00 0.0000000000e+00)	(0.0000000000e+00 0.0000000000e+00 0.0000000000e+00)	(0.0000000000e+00 0.0000000000e+00 0.0000000000e+00)
0.0004            	(0.0000000000e+00 0.0000000000e+00 0.0000000000e+00)	(0.0000000000e+00 0.0000000000e+00 0.0000000000e+00)	(0.0000000000e+00 0.0000000000e+00 0.0000000000e+00)
0.0005            	(0.0000000000e+00 0.0000000000e+00 0.0000000000e+00)	(0.0000000000e+00 0.0000000000e+00 0.0000000000e+00)	(0.0000000000e+00 0.0000000000e+00 0.0000000000e+00)
0.0006            	(0.0000000000e+00 0.0000000000e+00 0.0000000000e+00)	(0.0000000000e+00 0.0000000000e+00 0.0000000000e+00)	(0.0000000000e+00 0.0000000000e+00 0.0000000000e+00)
0.0007            	(0.0000000000e+00 0.0000000000e+00 0.0000000000e+00)	(0.0000000000e+00 0.0000000000e+00 0.0000000000e+00)	(0.0000000000e+00 0.0000000000e+00 0.0000000000e+00)
