# y+ ()           
# Time            	patch             	min               	max               	average           
0.0012            	airfoil	1.3434245593e+01	2.6393687930e+01	2.2994290784e+01
