# Moment          
# CofR            : (0.0000000000e+00 0.0000000000e+00 0.0000000000e+00)
#
# Time            	(total_x total_y total_z)	(pressure_x pressure_y pressure_z)	(viscous_x viscous_y viscous_z)
0.000100984       	(0.0000000000e+00 0.0000000000e+00 0.0000000000e+00)	(0.0000000000e+00 0.0000000000e+00 0.0000000000e+00)	(0.0000000000e+00 0.0000000000e+00 0.0000000000e+00)
0.000222164       	(0.0000000000e+00 0.0000000000e+00 0.0000000000e+00)	(0.0000000000e+00 0.0000000000e+00 0.0000000000e+00)	(0.0000000000e+00 0.0000000000e+00 0.0000000000e+00)
0.00036758        	(0.0000000000e+00 0.0000000000e+00 0.0000000000e+00)	(0.0000000000e+00 0.0000000000e+00 0.0000000000e+00)	(0.0000000000e+00 0.0000000000e+00 0.0000000000e+00)
